# Field minima and maxima
# Time        	field         	min           	location(min) 	max           	location(max) 
1             	mag(U)        	0.000000e+00	(1.058333e-03 0.000000e+00 -5.000000e-08)	1.345499e-08	(1.058333e-03 3.080625e-02 -5.000000e-08)
1             	T             	3.014500e+02	(8.890000e-02 9.937500e-04 -5.000000e-08)	3.111500e+02	(0.000000e+00 9.937500e-04 -5.000000e-08)
2             	mag(U)        	0.000000e+00	(1.058333e-03 0.000000e+00 -5.000000e-08)	3.443886e-08	(1.058333e-03 3.080625e-02 -5.000000e-08)
2             	T             	3.014500e+02	(8.890000e-02 9.937500e-04 -5.000000e-08)	3.111500e+02	(0.000000e+00 9.937500e-04 -5.000000e-08)
3             	mag(U)        	0.000000e+00	(1.058333e-03 0.000000e+00 -5.000000e-08)	1.051708e-07	(1.058333e-03 3.080625e-02 -5.000000e-08)
3             	T             	3.014500e+02	(8.890000e-02 9.937500e-04 -5.000000e-08)	3.111500e+02	(0.000000e+00 9.937500e-04 -5.000000e-08)
4             	mag(U)        	0.000000e+00	(1.058333e-03 0.000000e+00 -5.000000e-08)	1.370697e-07	(1.058333e-03 3.279375e-02 -5.000000e-08)
4             	T             	3.014500e+02	(8.890000e-02 9.937500e-04 -5.000000e-08)	3.111500e+02	(0.000000e+00 9.937500e-04 -5.000000e-08)
5             	mag(U)        	0.000000e+00	(1.058333e-03 0.000000e+00 -5.000000e-08)	1.496468e-07	(1.058333e-03 3.279375e-02 -5.000000e-08)
5             	T             	3.014500e+02	(8.890000e-02 9.937500e-04 -5.000000e-08)	3.111500e+02	(0.000000e+00 9.937500e-04 -5.000000e-08)
6             	mag(U)        	0.000000e+00	(1.058333e-03 0.000000e+00 -5.000000e-08)	1.625816e-07	(1.058333e-03 3.279375e-02 -5.000000e-08)
6             	T             	3.014500e+02	(8.890000e-02 9.937500e-04 -5.000000e-08)	3.111500e+02	(0.000000e+00 9.937500e-04 -5.000000e-08)
7             	mag(U)        	0.000000e+00	(1.058333e-03 0.000000e+00 -5.000000e-08)	3.951857e-07	(1.058333e-03 3.279375e-02 -5.000000e-08)
7             	T             	3.014500e+02	(8.890000e-02 9.937500e-04 -5.000000e-08)	3.111500e+02	(0.000000e+00 9.937500e-04 -5.000000e-08)
8             	mag(U)        	0.000000e+00	(1.058333e-03 0.000000e+00 -5.000000e-08)	6.296980e-07	(1.058333e-03 3.279375e-02 -5.000000e-08)
8             	T             	3.014500e+02	(8.890000e-02 9.937500e-04 -5.000000e-08)	3.111500e+02	(0.000000e+00 9.937500e-04 -5.000000e-08)
9             	mag(U)        	0.000000e+00	(1.058333e-03 0.000000e+00 -5.000000e-08)	1.052980e-06	(1.058333e-03 6.260625e-02 -5.000000e-08)
9             	T             	3.014500e+02	(8.890000e-02 9.937500e-04 -5.000000e-08)	3.111500e+02	(0.000000e+00 9.937500e-04 -5.000000e-08)
10            	mag(U)        	0.000000e+00	(1.058333e-03 0.000000e+00 -5.000000e-08)	2.525293e-06	(1.058333e-03 6.260625e-02 -5.000000e-08)
10            	T             	3.014500e+02	(8.890000e-02 9.937500e-04 -5.000000e-08)	3.111500e+02	(0.000000e+00 9.937500e-04 -5.000000e-08)
11            	mag(U)        	0.000000e+00	(1.058333e-03 0.000000e+00 -5.000000e-08)	5.233320e-06	(1.058333e-03 6.260625e-02 -5.000000e-08)
11            	T             	3.014500e+02	(8.890000e-02 9.937500e-04 -5.000000e-08)	3.111500e+02	(0.000000e+00 9.937500e-04 -5.000000e-08)
12            	mag(U)        	0.000000e+00	(1.058333e-03 0.000000e+00 -5.000000e-08)	1.090961e-05	(1.058333e-03 6.260625e-02 -5.000000e-08)
12            	T             	3.014500e+02	(8.890000e-02 9.937500e-04 -5.000000e-08)	3.111500e+02	(0.000000e+00 9.937500e-04 -5.000000e-08)
13            	mag(U)        	0.000000e+00	(1.058333e-03 0.000000e+00 -5.000000e-08)	2.149404e-05	(1.058333e-03 6.260625e-02 -5.000000e-08)
13            	T             	3.014500e+02	(8.890000e-02 9.937500e-04 -5.000000e-08)	3.111500e+02	(0.000000e+00 9.937500e-04 -5.000000e-08)
14            	mag(U)        	0.000000e+00	(1.058333e-03 0.000000e+00 -5.000000e-08)	4.227323e-05	(1.058333e-03 6.260625e-02 -5.000000e-08)
14            	T             	3.014500e+02	(8.890000e-02 9.937500e-04 -5.000000e-08)	3.111500e+02	(0.000000e+00 9.937500e-04 -5.000000e-08)
15            	mag(U)        	0.000000e+00	(1.058333e-03 0.000000e+00 -5.000000e-08)	8.270064e-05	(1.058333e-03 6.260625e-02 -5.000000e-08)
15            	T             	3.014500e+02	(8.890000e-02 9.937500e-04 -5.000000e-08)	3.111500e+02	(0.000000e+00 9.937500e-04 -5.000000e-08)
16            	mag(U)        	0.000000e+00	(1.058333e-03 0.000000e+00 -5.000000e-08)	1.649720e-04	(1.058333e-03 6.260625e-02 -5.000000e-08)
16            	T             	3.014500e+02	(8.890000e-02 9.937500e-04 -5.000000e-08)	3.111500e+02	(0.000000e+00 9.937500e-04 -5.000000e-08)
17            	mag(U)        	0.000000e+00	(1.058333e-03 0.000000e+00 -5.000000e-08)	3.374124e-04	(1.058333e-03 6.260625e-02 -5.000000e-08)
17            	T             	3.014500e+02	(8.890000e-02 9.937500e-04 -5.000000e-08)	3.111500e+02	(0.000000e+00 9.937500e-04 -5.000000e-08)
18            	mag(U)        	0.000000e+00	(1.058333e-03 0.000000e+00 -5.000000e-08)	6.954330e-04	(1.058333e-03 6.260625e-02 -5.000000e-08)
18            	T             	3.014500e+02	(8.890000e-02 9.937500e-04 -5.000000e-08)	3.111500e+02	(0.000000e+00 9.937500e-04 -5.000000e-08)
19            	mag(U)        	0.000000e+00	(1.058333e-03 0.000000e+00 -5.000000e-08)	1.706329e-03	(1.058333e-03 4.670625e-02 -5.000000e-08)
19            	T             	3.014500e+02	(8.890000e-02 9.937500e-04 -5.000000e-08)	3.111500e+02	(0.000000e+00 9.937500e-04 -5.000000e-08)
20            	mag(U)        	0.000000e+00	(1.058333e-03 0.000000e+00 -5.000000e-08)	2.893926e-03	(3.175000e-03 3.875625e-02 -5.000000e-08)
20            	T             	3.014500e+02	(8.890000e-02 9.937500e-04 -5.000000e-08)	3.111500e+02	(0.000000e+00 9.937500e-04 -5.000000e-08)
21            	mag(U)        	0.000000e+00	(1.058333e-03 0.000000e+00 -5.000000e-08)	4.033540e-03	(3.175000e-03 5.664375e-02 -5.000000e-08)
21            	T             	3.014500e+02	(8.890000e-02 9.937500e-04 -5.000000e-08)	3.111500e+02	(0.000000e+00 9.937500e-04 -5.000000e-08)
21.5          	mag(U)        	0.000000e+00	(1.058333e-03 0.000000e+00 -5.000000e-08)	4.661826e-03	(1.058333e-03 6.956250e-03 -5.000000e-08)
21.5          	T             	3.014500e+02	(8.890000e-02 9.937500e-04 -5.000000e-08)	3.111500e+02	(0.000000e+00 9.937500e-04 -5.000000e-08)
22            	mag(U)        	0.000000e+00	(1.058333e-03 0.000000e+00 -5.000000e-08)	5.403948e-03	(1.058333e-03 6.956250e-03 -5.000000e-08)
22            	T             	3.014500e+02	(8.890000e-02 9.937500e-04 -5.000000e-08)	3.111500e+02	(0.000000e+00 9.937500e-04 -5.000000e-08)
22.5          	mag(U)        	0.000000e+00	(1.058333e-03 0.000000e+00 -5.000000e-08)	5.677128e-03	(1.058333e-03 8.943750e-03 -5.000000e-08)
22.5          	T             	3.014500e+02	(8.890000e-02 9.937500e-04 -5.000000e-08)	3.111500e+02	(0.000000e+00 9.937500e-04 -5.000000e-08)
23            	mag(U)        	0.000000e+00	(1.058333e-03 0.000000e+00 -5.000000e-08)	6.454924e-03	(1.058333e-03 8.943750e-03 -5.000000e-08)
23            	T             	3.014500e+02	(8.890000e-02 9.937500e-04 -5.000000e-08)	3.111500e+02	(0.000000e+00 9.937500e-04 -5.000000e-08)
23.3333       	mag(U)        	0.000000e+00	(1.058333e-03 0.000000e+00 -5.000000e-08)	6.611887e-03	(1.058333e-03 8.943750e-03 -5.000000e-08)
23.3333       	T             	3.014500e+02	(8.890000e-02 9.937500e-04 -5.000000e-08)	3.111500e+02	(0.000000e+00 9.937500e-04 -5.000000e-08)
23.6667       	mag(U)        	0.000000e+00	(1.058333e-03 0.000000e+00 -5.000000e-08)	6.656314e-03	(1.058333e-03 1.093125e-02 -5.000000e-08)
23.6667       	T             	3.014500e+02	(8.890000e-02 9.937500e-04 -5.000000e-08)	3.111500e+02	(0.000000e+00 9.937500e-04 -5.000000e-08)
24            	mag(U)        	0.000000e+00	(1.058333e-03 0.000000e+00 -5.000000e-08)	6.964386e-03	(1.058333e-03 1.291875e-02 -5.000000e-08)
24            	T             	3.014500e+02	(8.890000e-02 9.937500e-04 -5.000000e-08)	3.111500e+02	(0.000000e+00 9.937500e-04 -5.000000e-08)
24.3333       	mag(U)        	0.000000e+00	(1.058333e-03 0.000000e+00 -5.000000e-08)	7.239875e-03	(1.058333e-03 1.093125e-02 -5.000000e-08)
24.3333       	T             	3.014500e+02	(8.890000e-02 9.937500e-04 -5.000000e-08)	3.111500e+02	(0.000000e+00 9.937500e-04 -5.000000e-08)
24.6667       	mag(U)        	0.000000e+00	(1.058333e-03 0.000000e+00 -5.000000e-08)	7.304311e-03	(1.058333e-03 1.291875e-02 -5.000000e-08)
24.6667       	T             	3.014500e+02	(8.890000e-02 9.937500e-04 -5.000000e-08)	3.111500e+02	(0.000000e+00 9.937500e-04 -5.000000e-08)
25            	mag(U)        	0.000000e+00	(1.058333e-03 0.000000e+00 -5.000000e-08)	7.725730e-03	(1.058333e-03 1.291875e-02 -5.000000e-08)
25            	T             	3.014500e+02	(8.890000e-02 9.937500e-04 -5.000000e-08)	3.111500e+02	(0.000000e+00 9.937500e-04 -5.000000e-08)
25.25         	mag(U)        	0.000000e+00	(1.058333e-03 0.000000e+00 -5.000000e-08)	7.816247e-03	(1.058333e-03 1.291875e-02 -5.000000e-08)
25.25         	T             	3.014500e+02	(8.890000e-02 9.937500e-04 -5.000000e-08)	3.111500e+02	(0.000000e+00 9.937500e-04 -5.000000e-08)
25.5          	mag(U)        	0.000000e+00	(1.058333e-03 0.000000e+00 -5.000000e-08)	7.540156e-03	(3.175000e-03 4.869375e-02 -5.000000e-08)
25.5          	T             	3.014500e+02	(8.890000e-02 9.937500e-04 -5.000000e-08)	3.111500e+02	(0.000000e+00 9.937500e-04 -5.000000e-08)
25.75         	mag(U)        	0.000000e+00	(1.058333e-03 0.000000e+00 -5.000000e-08)	7.771776e-03	(3.175000e-03 4.869375e-02 -5.000000e-08)
25.75         	T             	3.014500e+02	(8.890000e-02 9.937500e-04 -5.000000e-08)	3.111500e+02	(0.000000e+00 9.937500e-04 -5.000000e-08)
26            	mag(U)        	0.000000e+00	(1.058333e-03 0.000000e+00 -5.000000e-08)	7.849715e-03	(1.058333e-03 8.943750e-03 -5.000000e-08)
26            	T             	3.014500e+02	(8.890000e-02 9.937500e-04 -5.000000e-08)	3.111500e+02	(0.000000e+00 9.937500e-04 -5.000000e-08)
26.25         	mag(U)        	0.000000e+00	(1.058333e-03 0.000000e+00 -5.000000e-08)	8.036685e-03	(1.058333e-03 8.943750e-03 -5.000000e-08)
26.25         	T             	3.014500e+02	(8.890000e-02 9.937500e-04 -5.000000e-08)	3.111500e+02	(0.000000e+00 9.937500e-04 -5.000000e-08)
26.5          	mag(U)        	0.000000e+00	(1.058333e-03 0.000000e+00 -5.000000e-08)	8.151629e-03	(3.175000e-03 4.670625e-02 -5.000000e-08)
26.5          	T             	3.014500e+02	(8.890000e-02 9.937500e-04 -5.000000e-08)	3.111500e+02	(0.000000e+00 9.937500e-04 -5.000000e-08)
26.75         	mag(U)        	0.000000e+00	(1.058333e-03 0.000000e+00 -5.000000e-08)	8.622320e-03	(1.058333e-03 1.093125e-02 -5.000000e-08)
26.75         	T             	3.014500e+02	(8.890000e-02 9.937500e-04 -5.000000e-08)	3.111500e+02	(0.000000e+00 9.937500e-04 -5.000000e-08)
27            	mag(U)        	0.000000e+00	(1.058333e-03 0.000000e+00 -5.000000e-08)	8.452683e-03	(1.058333e-03 1.093125e-02 -5.000000e-08)
27            	T             	3.014500e+02	(8.890000e-02 9.937500e-04 -5.000000e-08)	3.111500e+02	(0.000000e+00 9.937500e-04 -5.000000e-08)
27.25         	mag(U)        	0.000000e+00	(1.058333e-03 0.000000e+00 -5.000000e-08)	8.207975e-03	(3.175000e-03 4.273125e-02 -5.000000e-08)
27.25         	T             	3.014500e+02	(8.890000e-02 9.937500e-04 -5.000000e-08)	3.111500e+02	(0.000000e+00 9.937500e-04 -5.000000e-08)
27.5          	mag(U)        	0.000000e+00	(1.058333e-03 0.000000e+00 -5.000000e-08)	8.356000e-03	(1.058333e-03 1.291875e-02 -5.000000e-08)
27.5          	T             	3.014500e+02	(8.890000e-02 9.937500e-04 -5.000000e-08)	3.111500e+02	(0.000000e+00 9.937500e-04 -5.000000e-08)
27.75         	mag(U)        	0.000000e+00	(1.058333e-03 0.000000e+00 -5.000000e-08)	8.400792e-03	(3.175000e-03 4.273125e-02 -5.000000e-08)
27.75         	T             	3.014500e+02	(8.890000e-02 9.937500e-04 -5.000000e-08)	3.111500e+02	(0.000000e+00 9.937500e-04 -5.000000e-08)
28            	mag(U)        	0.000000e+00	(1.058333e-03 0.000000e+00 -5.000000e-08)	8.652890e-03	(1.058333e-03 1.490625e-02 -5.000000e-08)
28            	T             	3.014500e+02	(8.890000e-02 9.937500e-04 -5.000000e-08)	3.111500e+02	(0.000000e+00 9.937500e-04 -5.000000e-08)
28.25         	mag(U)        	0.000000e+00	(1.058333e-03 0.000000e+00 -5.000000e-08)	8.714329e-03	(1.058333e-03 1.490625e-02 -5.000000e-08)
28.25         	T             	3.014500e+02	(8.890000e-02 9.937500e-04 -5.000000e-08)	3.111500e+02	(0.000000e+00 9.937500e-04 -5.000000e-08)
28.5          	mag(U)        	0.000000e+00	(1.058333e-03 0.000000e+00 -5.000000e-08)	8.451693e-03	(3.175000e-03 4.869375e-02 -5.000000e-08)
28.5          	T             	3.014500e+02	(8.890000e-02 9.937500e-04 -5.000000e-08)	3.111500e+02	(0.000000e+00 9.937500e-04 -5.000000e-08)
28.75         	mag(U)        	0.000000e+00	(1.058333e-03 0.000000e+00 -5.000000e-08)	8.489252e-03	(1.058333e-03 1.689375e-02 -5.000000e-08)
28.75         	T             	3.014500e+02	(8.890000e-02 9.937500e-04 -5.000000e-08)	3.111500e+02	(0.000000e+00 9.937500e-04 -5.000000e-08)
29            	mag(U)        	0.000000e+00	(1.058333e-03 0.000000e+00 -5.000000e-08)	8.602841e-03	(1.058333e-03 1.689375e-02 -5.000000e-08)
29            	T             	3.014500e+02	(8.890000e-02 9.937500e-04 -5.000000e-08)	3.111500e+02	(0.000000e+00 9.937500e-04 -5.000000e-08)
29.25         	mag(U)        	0.000000e+00	(1.058333e-03 0.000000e+00 -5.000000e-08)	8.660124e-03	(1.058333e-03 1.888125e-02 -5.000000e-08)
29.25         	T             	3.014500e+02	(8.890000e-02 9.937500e-04 -5.000000e-08)	3.111500e+02	(0.000000e+00 9.937500e-04 -5.000000e-08)
29.5          	mag(U)        	0.000000e+00	(1.058333e-03 0.000000e+00 -5.000000e-08)	8.804021e-03	(1.058333e-03 1.888125e-02 -5.000000e-08)
29.5          	T             	3.014500e+02	(8.890000e-02 9.937500e-04 -5.000000e-08)	3.111500e+02	(0.000000e+00 9.937500e-04 -5.000000e-08)
29.75         	mag(U)        	0.000000e+00	(1.058333e-03 0.000000e+00 -5.000000e-08)	8.830894e-03	(1.058333e-03 1.888125e-02 -5.000000e-08)
29.75         	T             	3.014500e+02	(8.890000e-02 9.937500e-04 -5.000000e-08)	3.111500e+02	(0.000000e+00 9.937500e-04 -5.000000e-08)
30            	mag(U)        	0.000000e+00	(1.058333e-03 0.000000e+00 -5.000000e-08)	8.842429e-03	(3.175000e-03 4.471875e-02 -5.000000e-08)
30            	T             	3.014500e+02	(8.890000e-02 9.937500e-04 -5.000000e-08)	3.111500e+02	(0.000000e+00 9.937500e-04 -5.000000e-08)
30.25         	mag(U)        	0.000000e+00	(1.058333e-03 0.000000e+00 -5.000000e-08)	8.772732e-03	(1.058333e-03 1.291875e-02 -5.000000e-08)
30.25         	T             	3.014500e+02	(8.890000e-02 9.937500e-04 -5.000000e-08)	3.111500e+02	(0.000000e+00 9.937500e-04 -5.000000e-08)
30.5          	mag(U)        	0.000000e+00	(1.058333e-03 0.000000e+00 -5.000000e-08)	9.234039e-03	(1.058333e-03 1.291875e-02 -5.000000e-08)
30.5          	T             	3.014500e+02	(8.890000e-02 9.937500e-04 -5.000000e-08)	3.111500e+02	(0.000000e+00 9.937500e-04 -5.000000e-08)
30.75         	mag(U)        	0.000000e+00	(1.058333e-03 0.000000e+00 -5.000000e-08)	9.600665e-03	(1.058333e-03 1.291875e-02 -5.000000e-08)
30.75         	T             	3.014500e+02	(8.890000e-02 9.937500e-04 -5.000000e-08)	3.111500e+02	(0.000000e+00 9.937500e-04 -5.000000e-08)
31            	mag(U)        	0.000000e+00	(1.058333e-03 0.000000e+00 -5.000000e-08)	9.427403e-03	(1.058333e-03 1.291875e-02 -5.000000e-08)
31            	T             	3.014500e+02	(8.890000e-02 9.937500e-04 -5.000000e-08)	3.111500e+02	(0.000000e+00 9.937500e-04 -5.000000e-08)
31.2          	mag(U)        	0.000000e+00	(1.058333e-03 0.000000e+00 -5.000000e-08)	9.459780e-03	(1.058333e-03 1.490625e-02 -5.000000e-08)
31.2          	T             	3.014500e+02	(8.890000e-02 9.937500e-04 -5.000000e-08)	3.111500e+02	(0.000000e+00 9.937500e-04 -5.000000e-08)
31.4          	mag(U)        	0.000000e+00	(1.058333e-03 0.000000e+00 -5.000000e-08)	9.514493e-03	(1.058333e-03 1.490625e-02 -5.000000e-08)
31.4          	T             	3.014500e+02	(8.890000e-02 9.937500e-04 -5.000000e-08)	3.111500e+02	(0.000000e+00 9.937500e-04 -5.000000e-08)
31.6          	mag(U)        	0.000000e+00	(1.058333e-03 0.000000e+00 -5.000000e-08)	9.522129e-03	(1.058333e-03 1.490625e-02 -5.000000e-08)
31.6          	T             	3.014500e+02	(8.890000e-02 9.937500e-04 -5.000000e-08)	3.111500e+02	(0.000000e+00 9.937500e-04 -5.000000e-08)
31.8          	mag(U)        	0.000000e+00	(1.058333e-03 0.000000e+00 -5.000000e-08)	9.264112e-03	(1.058333e-03 1.689375e-02 -5.000000e-08)
31.8          	T             	3.014500e+02	(8.890000e-02 9.937500e-04 -5.000000e-08)	3.111500e+02	(0.000000e+00 9.937500e-04 -5.000000e-08)
32            	mag(U)        	0.000000e+00	(1.058333e-03 0.000000e+00 -5.000000e-08)	9.490790e-03	(1.058333e-03 1.689375e-02 -5.000000e-08)
32            	T             	3.014500e+02	(8.890000e-02 9.937500e-04 -5.000000e-08)	3.111500e+02	(0.000000e+00 9.937500e-04 -5.000000e-08)
32.2          	mag(U)        	0.000000e+00	(1.058333e-03 0.000000e+00 -5.000000e-08)	9.503203e-03	(1.058333e-03 1.689375e-02 -5.000000e-08)
32.2          	T             	3.014500e+02	(8.890000e-02 9.937500e-04 -5.000000e-08)	3.111500e+02	(0.000000e+00 9.937500e-04 -5.000000e-08)
32.4          	mag(U)        	0.000000e+00	(1.058333e-03 0.000000e+00 -5.000000e-08)	9.179674e-03	(1.058333e-03 1.888125e-02 -5.000000e-08)
32.4          	T             	3.014500e+02	(8.890000e-02 9.937500e-04 -5.000000e-08)	3.111500e+02	(0.000000e+00 9.937500e-04 -5.000000e-08)
32.6          	mag(U)        	0.000000e+00	(1.058333e-03 0.000000e+00 -5.000000e-08)	9.190238e-03	(1.058333e-03 1.888125e-02 -5.000000e-08)
32.6          	T             	3.014500e+02	(8.890000e-02 9.937500e-04 -5.000000e-08)	3.111500e+02	(0.000000e+00 9.937500e-04 -5.000000e-08)
32.8          	mag(U)        	0.000000e+00	(1.058333e-03 0.000000e+00 -5.000000e-08)	9.405173e-03	(1.058333e-03 1.291875e-02 -5.000000e-08)
32.8          	T             	3.014500e+02	(8.890000e-02 9.937500e-04 -5.000000e-08)	3.111500e+02	(0.000000e+00 9.937500e-04 -5.000000e-08)
33            	mag(U)        	0.000000e+00	(1.058333e-03 0.000000e+00 -5.000000e-08)	9.454658e-03	(1.058333e-03 1.291875e-02 -5.000000e-08)
33            	T             	3.014500e+02	(8.890000e-02 9.937500e-04 -5.000000e-08)	3.111500e+02	(0.000000e+00 9.937500e-04 -5.000000e-08)
33.25         	mag(U)        	0.000000e+00	(1.058333e-03 0.000000e+00 -5.000000e-08)	9.294754e-03	(3.175000e-03 4.273125e-02 -5.000000e-08)
33.25         	T             	3.014500e+02	(8.890000e-02 9.937500e-04 -5.000000e-08)	3.111500e+02	(0.000000e+00 9.937500e-04 -5.000000e-08)
33.5          	mag(U)        	0.000000e+00	(1.058333e-03 0.000000e+00 -5.000000e-08)	9.477742e-03	(1.058333e-03 1.490625e-02 -5.000000e-08)
33.5          	T             	3.014500e+02	(8.890000e-02 9.937500e-04 -5.000000e-08)	3.111500e+02	(0.000000e+00 9.937500e-04 -5.000000e-08)
33.75         	mag(U)        	0.000000e+00	(1.058333e-03 0.000000e+00 -5.000000e-08)	9.459178e-03	(1.058333e-03 1.490625e-02 -5.000000e-08)
33.75         	T             	3.014500e+02	(8.890000e-02 9.937500e-04 -5.000000e-08)	3.111500e+02	(0.000000e+00 9.937500e-04 -5.000000e-08)
34            	mag(U)        	0.000000e+00	(1.058333e-03 0.000000e+00 -5.000000e-08)	9.462026e-03	(1.058333e-03 1.689375e-02 -5.000000e-08)
34            	T             	3.014500e+02	(8.890000e-02 9.937500e-04 -5.000000e-08)	3.111500e+02	(0.000000e+00 9.937500e-04 -5.000000e-08)
34.2          	mag(U)        	0.000000e+00	(1.058333e-03 0.000000e+00 -5.000000e-08)	9.334699e-03	(1.058333e-03 1.689375e-02 -5.000000e-08)
34.2          	T             	3.014500e+02	(8.890000e-02 9.937500e-04 -5.000000e-08)	3.111500e+02	(0.000000e+00 9.937500e-04 -5.000000e-08)
34.4          	mag(U)        	0.000000e+00	(1.058333e-03 0.000000e+00 -5.000000e-08)	9.406549e-03	(1.058333e-03 1.093125e-02 -5.000000e-08)
34.4          	T             	3.014500e+02	(8.890000e-02 9.937500e-04 -5.000000e-08)	3.111500e+02	(0.000000e+00 9.937500e-04 -5.000000e-08)
34.6          	mag(U)        	0.000000e+00	(1.058333e-03 0.000000e+00 -5.000000e-08)	9.593753e-03	(1.058333e-03 1.093125e-02 -5.000000e-08)
34.6          	T             	3.014500e+02	(8.890000e-02 9.937500e-04 -5.000000e-08)	3.111500e+02	(0.000000e+00 9.937500e-04 -5.000000e-08)
34.8          	mag(U)        	0.000000e+00	(1.058333e-03 0.000000e+00 -5.000000e-08)	9.257943e-03	(1.058333e-03 1.291875e-02 -5.000000e-08)
34.8          	T             	3.014500e+02	(8.890000e-02 9.937500e-04 -5.000000e-08)	3.111500e+02	(0.000000e+00 9.937500e-04 -5.000000e-08)
35            	mag(U)        	0.000000e+00	(1.058333e-03 0.000000e+00 -5.000000e-08)	9.930048e-03	(1.058333e-03 1.291875e-02 -5.000000e-08)
35            	T             	3.014500e+02	(8.890000e-02 9.937500e-04 -5.000000e-08)	3.111500e+02	(0.000000e+00 9.937500e-04 -5.000000e-08)
35.2          	mag(U)        	0.000000e+00	(1.058333e-03 0.000000e+00 -5.000000e-08)	9.664610e-03	(1.058333e-03 1.490625e-02 -5.000000e-08)
35.2          	T             	3.014500e+02	(8.890000e-02 9.937500e-04 -5.000000e-08)	3.111500e+02	(0.000000e+00 9.937500e-04 -5.000000e-08)
35.4          	mag(U)        	0.000000e+00	(1.058333e-03 0.000000e+00 -5.000000e-08)	1.047557e-02	(1.058333e-03 1.490625e-02 -5.000000e-08)
35.4          	T             	3.014500e+02	(8.890000e-02 9.937500e-04 -5.000000e-08)	3.111500e+02	(0.000000e+00 9.937500e-04 -5.000000e-08)
35.6          	mag(U)        	0.000000e+00	(1.058333e-03 0.000000e+00 -5.000000e-08)	9.987281e-03	(1.058333e-03 1.490625e-02 -5.000000e-08)
35.6          	T             	3.014500e+02	(8.890000e-02 9.937500e-04 -5.000000e-08)	3.111500e+02	(0.000000e+00 9.937500e-04 -5.000000e-08)
35.8          	mag(U)        	0.000000e+00	(1.058333e-03 0.000000e+00 -5.000000e-08)	9.350162e-03	(1.058333e-03 1.689375e-02 -5.000000e-08)
35.8          	T             	3.014500e+02	(8.890000e-02 9.937500e-04 -5.000000e-08)	3.111500e+02	(0.000000e+00 9.937500e-04 -5.000000e-08)
36            	mag(U)        	0.000000e+00	(1.058333e-03 0.000000e+00 -5.000000e-08)	9.448623e-03	(3.175000e-03 4.074375e-02 -5.000000e-08)
36            	T             	3.014500e+02	(8.890000e-02 9.937500e-04 -5.000000e-08)	3.111500e+02	(0.000000e+00 9.937500e-04 -5.000000e-08)
36.2          	mag(U)        	0.000000e+00	(1.058333e-03 0.000000e+00 -5.000000e-08)	9.527493e-03	(1.058333e-03 1.093125e-02 -5.000000e-08)
36.2          	T             	3.014500e+02	(8.890000e-02 9.937500e-04 -5.000000e-08)	3.111500e+02	(0.000000e+00 9.937500e-04 -5.000000e-08)
36.4          	mag(U)        	0.000000e+00	(1.058333e-03 0.000000e+00 -5.000000e-08)	9.876141e-03	(1.058333e-03 1.093125e-02 -5.000000e-08)
36.4          	T             	3.014500e+02	(8.890000e-02 9.937500e-04 -5.000000e-08)	3.111500e+02	(0.000000e+00 9.937500e-04 -5.000000e-08)
36.6          	mag(U)        	0.000000e+00	(1.058333e-03 0.000000e+00 -5.000000e-08)	9.981254e-03	(1.058333e-03 1.093125e-02 -5.000000e-08)
36.6          	T             	3.014500e+02	(8.890000e-02 9.937500e-04 -5.000000e-08)	3.111500e+02	(0.000000e+00 9.937500e-04 -5.000000e-08)
36.8          	mag(U)        	0.000000e+00	(1.058333e-03 0.000000e+00 -5.000000e-08)	9.846479e-03	(1.058333e-03 1.093125e-02 -5.000000e-08)
36.8          	T             	3.014500e+02	(8.890000e-02 9.937500e-04 -5.000000e-08)	3.111500e+02	(0.000000e+00 9.937500e-04 -5.000000e-08)
37            	mag(U)        	0.000000e+00	(1.058333e-03 0.000000e+00 -5.000000e-08)	9.727832e-03	(1.058333e-03 1.093125e-02 -5.000000e-08)
37            	T             	3.014500e+02	(8.890000e-02 9.937500e-04 -5.000000e-08)	3.111500e+02	(0.000000e+00 9.937500e-04 -5.000000e-08)
37.2          	mag(U)        	0.000000e+00	(1.058333e-03 0.000000e+00 -5.000000e-08)	9.648146e-03	(1.058333e-03 1.689375e-02 -5.000000e-08)
37.2          	T             	3.014500e+02	(8.890000e-02 9.937500e-04 -5.000000e-08)	3.111500e+02	(0.000000e+00 9.937500e-04 -5.000000e-08)
37.4          	mag(U)        	0.000000e+00	(1.058333e-03 0.000000e+00 -5.000000e-08)	9.713133e-03	(1.058333e-03 1.291875e-02 -5.000000e-08)
37.4          	T             	3.014500e+02	(8.890000e-02 9.937500e-04 -5.000000e-08)	3.111500e+02	(0.000000e+00 9.937500e-04 -5.000000e-08)
37.6          	mag(U)        	0.000000e+00	(1.058333e-03 0.000000e+00 -5.000000e-08)	9.752849e-03	(1.058333e-03 1.888125e-02 -5.000000e-08)
37.6          	T             	3.014500e+02	(8.890000e-02 9.937500e-04 -5.000000e-08)	3.111500e+02	(0.000000e+00 9.937500e-04 -5.000000e-08)
37.8          	mag(U)        	0.000000e+00	(1.058333e-03 0.000000e+00 -5.000000e-08)	9.798997e-03	(1.058333e-03 2.086875e-02 -5.000000e-08)
37.8          	T             	3.014500e+02	(8.890000e-02 9.937500e-04 -5.000000e-08)	3.111500e+02	(0.000000e+00 9.937500e-04 -5.000000e-08)
38            	mag(U)        	0.000000e+00	(1.058333e-03 0.000000e+00 -5.000000e-08)	9.986457e-03	(1.058333e-03 2.086875e-02 -5.000000e-08)
38            	T             	3.014500e+02	(8.890000e-02 9.937500e-04 -5.000000e-08)	3.111500e+02	(0.000000e+00 9.937500e-04 -5.000000e-08)
38.2          	mag(U)        	0.000000e+00	(1.058333e-03 0.000000e+00 -5.000000e-08)	1.006133e-02	(1.058333e-03 2.285625e-02 -5.000000e-08)
38.2          	T             	3.014500e+02	(8.890000e-02 9.937500e-04 -5.000000e-08)	3.111500e+02	(0.000000e+00 9.937500e-04 -5.000000e-08)
38.4          	mag(U)        	0.000000e+00	(1.058333e-03 0.000000e+00 -5.000000e-08)	1.027899e-02	(1.058333e-03 2.285625e-02 -5.000000e-08)
38.4          	T             	3.014500e+02	(8.890000e-02 9.937500e-04 -5.000000e-08)	3.111500e+02	(0.000000e+00 9.937500e-04 -5.000000e-08)
38.6          	mag(U)        	0.000000e+00	(1.058333e-03 0.000000e+00 -5.000000e-08)	1.038527e-02	(1.058333e-03 2.484375e-02 -5.000000e-08)
38.6          	T             	3.014500e+02	(8.890000e-02 9.937500e-04 -5.000000e-08)	3.111500e+02	(0.000000e+00 9.937500e-04 -5.000000e-08)
38.8          	mag(U)        	0.000000e+00	(1.058333e-03 0.000000e+00 -5.000000e-08)	1.058491e-02	(1.058333e-03 2.484375e-02 -5.000000e-08)
38.8          	T             	3.014500e+02	(8.890000e-02 9.937500e-04 -5.000000e-08)	3.111500e+02	(0.000000e+00 9.937500e-04 -5.000000e-08)
39            	mag(U)        	0.000000e+00	(1.058333e-03 0.000000e+00 -5.000000e-08)	1.076000e-02	(1.058333e-03 2.683125e-02 -5.000000e-08)
39            	T             	3.014500e+02	(8.890000e-02 9.937500e-04 -5.000000e-08)	3.111500e+02	(0.000000e+00 9.937500e-04 -5.000000e-08)
39.2          	mag(U)        	0.000000e+00	(1.058333e-03 0.000000e+00 -5.000000e-08)	1.101048e-02	(1.058333e-03 2.683125e-02 -5.000000e-08)
39.2          	T             	3.014500e+02	(8.890000e-02 9.937500e-04 -5.000000e-08)	3.111500e+02	(0.000000e+00 9.937500e-04 -5.000000e-08)
39.4          	mag(U)        	0.000000e+00	(1.058333e-03 0.000000e+00 -5.000000e-08)	1.104302e-02	(1.058333e-03 2.881875e-02 -5.000000e-08)
39.4          	T             	3.014500e+02	(8.890000e-02 9.937500e-04 -5.000000e-08)	3.111500e+02	(0.000000e+00 9.937500e-04 -5.000000e-08)
39.6          	mag(U)        	0.000000e+00	(1.058333e-03 0.000000e+00 -5.000000e-08)	1.122866e-02	(1.058333e-03 2.881875e-02 -5.000000e-08)
39.6          	T             	3.014500e+02	(8.890000e-02 9.937500e-04 -5.000000e-08)	3.111500e+02	(0.000000e+00 9.937500e-04 -5.000000e-08)
39.8          	mag(U)        	0.000000e+00	(1.058333e-03 0.000000e+00 -5.000000e-08)	1.121019e-02	(1.058333e-03 2.881875e-02 -5.000000e-08)
39.8          	T             	3.014500e+02	(8.890000e-02 9.937500e-04 -5.000000e-08)	3.111500e+02	(0.000000e+00 9.937500e-04 -5.000000e-08)
40            	mag(U)        	0.000000e+00	(1.058333e-03 0.000000e+00 -5.000000e-08)	1.119638e-02	(1.058333e-03 3.080625e-02 -5.000000e-08)
40            	T             	3.014500e+02	(8.890000e-02 9.937500e-04 -5.000000e-08)	3.111500e+02	(0.000000e+00 9.937500e-04 -5.000000e-08)
40.1667       	mag(U)        	0.000000e+00	(1.058333e-03 0.000000e+00 -5.000000e-08)	1.118503e-02	(1.058333e-03 3.279375e-02 -5.000000e-08)
40.1667       	T             	3.014500e+02	(8.890000e-02 9.937500e-04 -5.000000e-08)	3.111500e+02	(0.000000e+00 9.937500e-04 -5.000000e-08)
40.3333       	mag(U)        	0.000000e+00	(1.058333e-03 0.000000e+00 -5.000000e-08)	1.125676e-02	(1.058333e-03 3.478125e-02 -5.000000e-08)
40.3333       	T             	3.014500e+02	(8.890000e-02 9.937500e-04 -5.000000e-08)	3.111500e+02	(0.000000e+00 9.937500e-04 -5.000000e-08)
40.5          	mag(U)        	0.000000e+00	(1.058333e-03 0.000000e+00 -5.000000e-08)	1.135524e-02	(1.058333e-03 3.875625e-02 -5.000000e-08)
40.5          	T             	3.014500e+02	(8.890000e-02 9.937500e-04 -5.000000e-08)	3.111500e+02	(0.000000e+00 9.937500e-04 -5.000000e-08)
40.6667       	mag(U)        	0.000000e+00	(1.058333e-03 0.000000e+00 -5.000000e-08)	1.149977e-02	(1.058333e-03 3.875625e-02 -5.000000e-08)
40.6667       	T             	3.014500e+02	(8.890000e-02 9.937500e-04 -5.000000e-08)	3.111500e+02	(0.000000e+00 9.937500e-04 -5.000000e-08)
40.8333       	mag(U)        	0.000000e+00	(1.058333e-03 0.000000e+00 -5.000000e-08)	1.168224e-02	(1.058333e-03 4.273125e-02 -5.000000e-08)
40.8333       	T             	3.014500e+02	(8.890000e-02 9.937500e-04 -5.000000e-08)	3.111500e+02	(0.000000e+00 9.937500e-04 -5.000000e-08)
41            	mag(U)        	0.000000e+00	(1.058333e-03 0.000000e+00 -5.000000e-08)	1.187618e-02	(1.058333e-03 4.273125e-02 -5.000000e-08)
41            	T             	3.014500e+02	(8.890000e-02 9.937500e-04 -5.000000e-08)	3.111500e+02	(0.000000e+00 9.937500e-04 -5.000000e-08)
41.1667       	mag(U)        	0.000000e+00	(1.058333e-03 0.000000e+00 -5.000000e-08)	1.205642e-02	(1.058333e-03 4.273125e-02 -5.000000e-08)
41.1667       	T             	3.014500e+02	(8.890000e-02 9.937500e-04 -5.000000e-08)	3.111500e+02	(0.000000e+00 9.937500e-04 -5.000000e-08)
41.3333       	mag(U)        	0.000000e+00	(1.058333e-03 0.000000e+00 -5.000000e-08)	1.223832e-02	(1.058333e-03 4.273125e-02 -5.000000e-08)